created by fftool

7794 atoms
6096 bonds
8826 angles
6552 dihedrals
576 impropers
14 atom types
6 bond types
8 angle types
4 dihedral types
1 improper types
0.000000 29.449924 xlo xhi
0.000000 48.621581 ylo yhi
0.000000 60.000000 zlo zhi

Masses

   1   12.010  # CT1
   2   12.010  # CT2
   3    1.008  # HC1
   4    1.008  # HC2
   5    1.008  # HC3
   6   16.000  # OH
   7    1.008  # H11
   8    1.008  # H12
   9    1.008  # HO
  10   12.010  # C
  11   40.078  # Ca
  12   16.000  # O1
  13   16.000  # O2
  14   16.000  # O3

Bond Coeffs

   1     0.000000     1.538000  # CT-CT
   2     0.000000     1.097000  # CT-HC
   3     0.000000     1.423000  # CT-OH
   4     0.000000     1.097000  # CT-H1
   5     0.000000     0.973000  # HO-OH
   6     0.000000     1.280000  # C-O

Angle Coeffs

   1     0.000000   109.800000  # CT-CT-HC
   2     0.000000   107.580000  # HC-CT-HC
   3     0.000000   110.190000  # CT-CT-OH
   4     0.000000   109.560000  # CT-CT-H1
   5     0.000000   110.260000  # H1-CT-OH
   6     0.000000   108.460000  # H1-CT-H1
   7     0.000000   107.260000  # CT-OH-HO
   8     0.000000   120.000000  # O-C-O

Dihedral Coeffs

   1     0.059751     0.000000     0.239006     0.000000  # HC-CT-CT-OH
   2     0.334608     0.000000     0.717017     0.000000  # H1-CT-CT-HC
   3     0.059751     0.000000     0.239006     0.000000  # CT-CT-OH-HO
   4     0.119503     0.000000     0.717017     0.000000  # H1-CT-OH-HO

Improper Coeffs

   5     0.239006    43.021033     0.000000     0.000000  # O-O-C-O

Atoms

      1       1    1  -0.419820  1.124727e+01  4.378153e+01  4.227809e+01  # CT1 ethanol
      2       1    2   0.432069  1.206437e+01  4.380985e+01  4.355307e+01  # CT2 ethanol
      3       1    3   0.101247  1.031289e+01  4.323101e+01  4.242906e+01  # HC1 ethanol
      4       1    4   0.116248  1.179457e+01  4.326727e+01  4.148127e+01  # HC2 ethanol
      5       1    5   0.087862  1.100856e+01  4.479555e+01  4.194543e+01  # HC3 ethanol
      6       1    6  -0.690372  1.237625e+01  4.248511e+01  4.395900e+01  # OH ethanol
      7       1    7  -0.053283  1.151550e+01  4.430437e+01  4.436021e+01  # H11 ethanol
      8       1    8   0.022726  1.300332e+01  4.434800e+01  4.339411e+01  # H12 ethanol
      9       1    9   0.403323  1.153611e+01  4.201987e+01  4.411134e+01  # HO ethanol
     10       2    1  -0.419820  1.906506e+01  2.687672e+00  4.469082e+01  # CT1 ethanol
     11       2    2   0.432069  1.943475e+01  1.284167e+00  4.512386e+01  # CT2 ethanol
     12       2    3   0.101247  1.901267e+01  3.358371e+00  4.555473e+01  # HC1 ethanol
     13       2    4   0.116248  1.807669e+01  2.697574e+00  4.421972e+01  # HC2 ethanol
     14       2    5   0.087862  1.979833e+01  3.082923e+00  4.398231e+01  # HC3 ethanol
     15       2    6  -0.690372  1.846277e+01  7.843600e-01  4.603073e+01  # OH ethanol
     16       2    7  -0.053283  2.041284e+01  1.269417e+00  4.561417e+01  # H11 ethanol
     17       2    8   0.022726  1.947175e+01  6.142550e-01  4.425994e+01  # H12 ethanol
     18       2    9   0.403323  1.844770e+01  1.378054e+00  4.680066e+01  # HO ethanol
     19       3    1  -0.419820  1.680070e+01  1.010132e+01  3.962439e+01  # CT1 ethanol
     20       3    2   0.432069  1.574556e+01  1.118340e+01  3.972349e+01  # CT2 ethanol
     21       3    3   0.101247  1.644383e+01  9.267422e+00  3.901105e+01  # HC1 ethanol
     22       3    4   0.116248  1.702830e+01  9.693512e+00  4.061475e+01  # HC2 ethanol
     23       3    5   0.087862  1.772135e+01  1.049373e+01  3.918359e+01  # HC3 ethanol
     24       3    6  -0.690372  1.456486e+01  1.065735e+01  4.031185e+01  # OH ethanol
     25       3    7  -0.053283  1.549779e+01  1.158184e+01  3.873498e+01  # H11 ethanol
     26       3    8   0.022726  1.610028e+01  1.200783e+01  4.034879e+01  # H12 ethanol
     27       3    9   0.403323  1.424994e+01  9.935406e+00  3.974166e+01  # HO ethanol
     28       4    1  -0.419820  1.456518e+01  1.892629e+01  5.044228e+01  # CT1 ethanol
     29       4    2   0.432069  1.573148e+01  1.978915e+01  5.000727e+01  # CT2 ethanol
     30       4    3   0.101247  1.438374e+01  1.903343e+01  5.151677e+01  # HC1 ethanol
     31       4    4   0.116248  1.477971e+01  1.786822e+01  5.025961e+01  # HC2 ethanol
     32       4    5   0.087862  1.365457e+01  1.920066e+01  4.990247e+01  # HC3 ethanol
     33       4    6  -0.690372  1.690593e+01  1.940676e+01  5.070828e+01  # OH ethanol
     34       4    7  -0.053283  1.553286e+01  2.084674e+01  5.020560e+01  # H11 ethanol
     35       4    8   0.022726  1.591867e+01  1.966816e+01  4.893637e+01  # H12 ethanol
     36       4    9   0.403323  1.673439e+01  1.953131e+01  5.165725e+01  # HO ethanol
     37       5    1  -0.419820  2.502629e+00  4.110590e+01  4.320552e+01  # CT1 ethanol
     38       5    2   0.432069  1.943774e+00  4.204460e+01  4.215646e+01  # CT2 ethanol
     39       5    3   0.101247  3.048476e+00  4.166402e+01  4.397330e+01  # HC1 ethanol
     40       5    4   0.116248  3.213453e+00  4.040498e+01  4.275568e+01  # HC2 ethanol
     41       5    5   0.087862  1.701705e+00  4.053731e+01  4.368628e+01  # HC3 ethanol
     42       5    6  -0.690372  3.000350e+00  4.276133e+01  4.153443e+01  # OH ethanol
     43       5    7  -0.053283  1.247746e+00  4.276170e+01  4.260210e+01  # H11 ethanol
     44       5    8   0.022726  1.411832e+00  4.148203e+01  4.138377e+01  # H12 ethanol
     45       5    9   0.403323  3.457563e+00  4.326864e+01  4.222658e+01  # HO ethanol
     46       6    1  -0.419820  2.219611e+01  2.800485e+01  4.971176e+01  # CT1 ethanol
     47       6    2   0.432069  2.130013e+01  2.690847e+01  5.024952e+01  # CT2 ethanol
     48       6    3   0.101247  2.283563e+01  2.762349e+01  4.890895e+01  # HC1 ethanol
     49       6    4   0.116248  2.286058e+01  2.837921e+01  5.049743e+01  # HC2 ethanol
     50       6    5   0.087862  2.160311e+01  2.883775e+01  4.932380e+01  # HC3 ethanol
     51       6    6  -0.690372  2.208923e+01  2.584456e+01  5.076174e+01  # OH ethanol
     52       6    7  -0.053283  2.064704e+01  2.651493e+01  4.946473e+01  # H11 ethanol
     53       6    8   0.022726  2.067342e+01  2.728978e+01  5.106090e+01  # H12 ethanol
     54       6    9   0.403323  2.263162e+01  2.550355e+01  5.003029e+01  # HO ethanol
     55       7    1  -0.419820  1.991674e+01  1.312083e+01  4.461301e+01  # CT1 ethanol
     56       7    2   0.432069  2.117789e+01  1.394883e+01  4.447900e+01  # CT2 ethanol
     57       7    3   0.101247  1.933157e+01  1.315401e+01  4.368813e+01  # HC1 ethanol
     58       7    4   0.116248  1.927780e+01  1.351831e+01  4.540842e+01  # HC2 ethanol
     59       7    5   0.087862  2.015704e+01  1.207849e+01  4.484030e+01  # HC3 ethanol
     60       7    6  -0.690372  2.084347e+01  1.530047e+01  4.419936e+01  # OH ethanol
     61       7    7  -0.053283  2.181239e+01  1.356994e+01  4.367207e+01  # H11 ethanol
     62       7    8   0.022726  2.175220e+01  1.392493e+01  4.540965e+01  # H12 ethanol
     63       7    9   0.403323  2.034608e+01  1.531244e+01  4.336393e+01  # HO ethanol
     64       8    1  -0.419820  1.186580e+01  2.369170e+01  3.080417e+01  # CT1 ethanol
     65       8    2   0.432069  1.167103e+01  2.400127e+01  2.933439e+01  # CT2 ethanol
     66       8    3   0.101247  1.261951e+01  2.435383e+01  3.124285e+01  # HC1 ethanol
     67       8    4   0.116248  1.222651e+01  2.266647e+01  3.093729e+01  # HC2 ethanol
     68       8    5   0.087862  1.092881e+01  2.381111e+01  3.135523e+01  # HC3 ethanol
     69       8    6  -0.690372  1.289465e+01  2.382550e+01  2.863523e+01  # OH ethanol
     70       8    7  -0.053283  1.133005e+01  2.503118e+01  2.919194e+01  # H11 ethanol
     71       8    8   0.022726  1.092816e+01  2.332822e+01  2.889660e+01  # H12 ethanol
     72       8    9   0.403323  1.354366e+01  2.443760e+01  2.902201e+01  # HO ethanol
     73       9    1  -0.419820  2.112603e+01  2.645891e+01  5.648085e+01  # CT1 ethanol
     74       9    2   0.432069  2.252198e+01  2.686661e+01  5.690409e+01  # CT2 ethanol
     75       9    3   0.101247  2.115601e+01  2.554892e+01  5.587262e+01  # HC1 ethanol
     76       9    4   0.116248  2.066730e+01  2.723891e+01  5.586435e+01  # HC2 ethanol
     77       9    5   0.087862  2.049128e+01  2.627866e+01  5.735291e+01  # HC3 ethanol
     78       9    6  -0.690372  2.332464e+01  2.711046e+01  5.575812e+01  # OH ethanol
     79       9    7  -0.053283  2.299496e+01  2.608306e+01  5.750378e+01  # H11 ethanol
     80       9    8   0.022726  2.248903e+01  2.778389e+01  5.749907e+01  # H12 ethanol
     81       9    9   0.403323  2.335931e+01  2.628597e+01  5.524383e+01  # HO ethanol
     82      10    1  -0.419820  2.335525e+01  7.633363e+00  3.408239e+01  # CT1 ethanol
     83      10    2   0.432069  2.378993e+01  8.602965e+00  3.300307e+01  # CT2 ethanol
     84      10    3   0.101247  2.303134e+01  6.684270e+00  3.364281e+01  # HC1 ethanol
     85      10    4   0.116248  2.250176e+01  8.034085e+00  3.463907e+01  # HC2 ethanol
     86      10    5   0.087862  2.417253e+01  7.436569e+00  3.478182e+01  # HC3 ethanol
     87      10    6  -0.690372  2.271074e+01  8.856497e+00  3.211534e+01  # OH ethanol
     88      10    7  -0.053283  2.462982e+01  8.200411e+00  3.242878e+01  # H11 ethanol
     89      10    8   0.022726  2.409885e+01  9.554594e+00  3.344519e+01  # H12 ethanol
     90      10    9   0.403323  2.245316e+01  8.007576e+00  3.171726e+01  # HO ethanol
     91      11    1  -0.419820  2.367800e+01  3.002793e+01  5.617051e+01  # CT1 ethanol
     92      11    2   0.432069  2.486142e+01  2.940202e+01  5.687886e+01  # CT2 ethanol
     93      11    3   0.101247  2.317648e+01  2.929371e+01  5.553149e+01  # HC1 ethanol
     94      11    4   0.116248  2.400674e+01  3.084469e+01  5.551955e+01  # HC2 ethanol
     95      11    5   0.087862  2.295478e+01  3.041957e+01  5.689124e+01  # HC3 ethanol
     96      11    6  -0.690372  2.579464e+01  2.891403e+01  5.592601e+01  # OH ethanol
     97      11    7  -0.053283  2.454316e+01  2.857128e+01  5.751594e+01  # H11 ethanol
     98      11    8   0.022726  2.536823e+01  3.014225e+01  5.750472e+01  # H12 ethanol
     99      11    9   0.403323  2.533898e+01  2.824720e+01  5.538452e+01  # HO ethanol
    100      12    1  -0.419820  2.669369e+01  2.432874e+01  3.342135e+01  # CT1 ethanol
    101      12    2   0.432069  2.735136e+01  2.315336e+01  3.411416e+01  # CT2 ethanol
    102      12    3   0.101247  2.568586e+01  2.449608e+01  3.381530e+01  # HC1 ethanol
    103      12    4   0.116248  2.658805e+01  2.413385e+01  3.234907e+01  # HC2 ethanol
    104      12    5   0.087862  2.728122e+01  2.524079e+01  3.355867e+01  # HC3 ethanol
    105      12    6  -0.690372  2.658136e+01  2.197746e+01  3.391086e+01  # OH ethanol
    106      12    7  -0.053283  2.744189e+01  2.333218e+01  3.518985e+01  # H11 ethanol
    107      12    8   0.022726  2.835207e+01  2.298046e+01  3.370773e+01  # H12 ethanol
    108      12    9   0.403323  2.569920e+01  2.213606e+01  3.428785e+01  # HO ethanol
    109      13    1  -0.419820  2.456650e+01  3.723985e+01  2.736665e+01  # CT1 ethanol
    110      13    2   0.432069  2.430346e+01  3.743351e+01  2.884561e+01  # CT2 ethanol
    111      13    3   0.101247  2.495926e+01  3.623661e+01  2.717125e+01  # HC1 ethanol
    112      13    4   0.116248  2.532011e+01  3.795119e+01  2.701314e+01  # HC2 ethanol
    113      13    5   0.087862  2.365003e+01  3.737825e+01  2.678628e+01  # HC3 ethanol
    114      13    6  -0.690372  2.550799e+01  3.726473e+01  2.957882e+01  # OH ethanol
    115      13    7  -0.053283  2.356605e+01  3.671238e+01  2.921094e+01  # H11 ethanol
    116      13    8   0.022726  2.392508e+01  3.844157e+01  2.903834e+01  # H12 ethanol
    117      13    9   0.403323  2.582833e+01  3.636188e+01  2.941228e+01  # HO ethanol
    118      14    1  -0.419820  1.900093e+01  2.698103e+00  4.002023e+01  # CT1 ethanol
    119      14    2   0.432069  1.906275e+01  1.229022e+00  3.965693e+01  # CT2 ethanol
    120      14    3   0.101247  1.803394e+01  2.945362e+00  4.047047e+01  # HC1 ethanol
    121      14    4   0.116248  1.910402e+01  3.320763e+00  3.912548e+01  # HC2 ethanol
    122      14    5   0.087862  1.979470e+01  2.958951e+00  4.072578e+01  # HC3 ethanol
    123      14    6  -0.690372  1.803431e+01  9.149510e-01  3.872922e+01  # OH ethanol
    124      14    7  -0.053283  1.893989e+01  5.998110e-01  4.054365e+01  # H11 ethanol
    125      14    8   0.022726  2.002450e+01  9.892380e-01  3.919428e+01  # H12 ethanol
    126      14    9   0.403323  1.718387e+01  1.117980e+00  3.915470e+01  # HO ethanol
    127      15    1  -0.419820  8.807566e+00  3.481001e+01  3.371848e+01  # CT1 ethanol
    128      15    2   0.432069  8.016264e+00  3.419662e+01  3.485497e+01  # CT2 ethanol
    129      15    3   0.101247  9.560563e+00  3.550613e+01  3.410234e+01  # HC1 ethanol
    130      15    4   0.116248  8.150237e+00  3.538467e+01  3.305772e+01  # HC2 ethanol
    131      15    5   0.087862  9.310226e+00  3.403638e+01  3.313135e+01  # HC3 ethanol
    132      15    6  -0.690372  7.359815e+00  3.521589e+01  3.559465e+01  # OH ethanol
    133      15    7  -0.053283  8.669766e+00  3.363741e+01  3.553136e+01  # H11 ethanol
    134      15    8   0.022726  7.255647e+00  3.351312e+01  3.446663e+01  # H12 ethanol
    135      15    9   0.403323  8.044630e+00  3.580943e+01  3.594710e+01  # HO ethanol
    136      16    1  -0.419820  2.011605e+01  2.520072e+01  3.593693e+01  # CT1 ethanol
    137      16    2   0.432069  1.952518e+01  2.572067e+01  3.464290e+01  # CT2 ethanol
    138      16    3   0.101247  1.981164e+01  2.416370e+01  3.611256e+01  # HC1 ethanol
    139      16    4   0.116248  1.975484e+01  2.578705e+01  3.678820e+01  # HC2 ethanol
    140      16    5   0.087862  2.120836e+01  2.524774e+01  3.591336e+01  # HC3 ethanol
    141      16    6  -0.690372  1.810722e+01  2.566527e+01  3.470021e+01  # OH ethanol
    142      16    7  -0.053283  1.986555e+01  2.512668e+01  3.378931e+01  # H11 ethanol
    143      16    8   0.022726  1.981964e+01  2.676123e+01  3.447848e+01  # H12 ethanol
    144      16    9   0.403323  1.785540e+01  2.473539e+01  3.483214e+01  # HO ethanol
    145      17    1  -0.419820  2.272577e+01  2.381307e+01  3.263674e+01  # CT1 ethanol
    146      17    2   0.432069  2.317317e+01  2.241354e+01  3.226910e+01  # CT2 ethanol
    147      17    3   0.101247  2.232546e+01  2.383659e+01  3.365562e+01  # HC1 ethanol
    148      17    4   0.116248  2.192312e+01  2.414800e+01  3.197154e+01  # HC2 ethanol
    149      17    5   0.087862  2.355837e+01  2.451886e+01  3.256930e+01  # HC3 ethanol
    150      17    6  -0.690372  2.207491e+01  2.151659e+01  3.234821e+01  # OH ethanol
    151      17    7  -0.053283  2.396141e+01  2.206374e+01  3.294260e+01  # H11 ethanol
    152      17    8   0.022726  2.355881e+01  2.239137e+01  3.124572e+01  # H12 ethanol
    153      17    9   0.403323  2.174869e+01  2.153285e+01  3.326407e+01  # HO ethanol
    154      18    1  -0.419820  7.072049e+00  3.664989e+01  4.218664e+01  # CT1 ethanol
    155      18    2   0.432069  5.651524e+00  3.716924e+01  4.226661e+01  # CT2 ethanol
    156      18    3   0.101247  7.184982e+00  3.595896e+01  4.134474e+01  # HC1 ethanol
    157      18    4   0.116248  7.329779e+00  3.609215e+01  4.309297e+01  # HC2 ethanol
    158      18    5   0.087862  7.781714e+00  3.747286e+01  4.206423e+01  # HC3 ethanol
    159      18    6  -0.690372  4.748368e+00  3.608712e+01  4.244064e+01  # OH ethanol
    160      18    7  -0.053283  5.379533e+00  3.771052e+01  4.135539e+01  # H11 ethanol
    161      18    8   0.022726  5.539269e+00  3.784758e+01  4.311736e+01  # H12 ethanol
    162      18    9   0.403323  4.845573e+00  3.549801e+01  4.167318e+01  # HO ethanol
    163      19    1  -0.419820  1.275596e+01  9.417748e+00  5.387305e+01  # CT1 ethanol
    164      19    2   0.432069  1.234180e+01  1.028780e+01  5.504159e+01  # CT2 ethanol
    165      19    3   0.101247  1.230426e+01  8.423382e+00  5.395134e+01  # HC1 ethanol
    166      19    4   0.116248  1.384148e+01  9.274571e+00  5.386522e+01  # HC2 ethanol
    167      19    5   0.087862  1.245205e+01  9.868697e+00  5.292427e+01  # HC3 ethanol
    168      19    6  -0.690372  1.275892e+01  9.692387e+00  5.626162e+01  # OH ethanol
    169      19    7  -0.053283  1.125578e+01  1.041871e+01  5.506806e+01  # H11 ethanol
    170      19    8   0.022726  1.280663e+01  1.127518e+01  5.496734e+01  # H12 ethanol
    171      19    9   0.403323  1.232960e+01  8.822230e+00  5.632482e+01  # HO ethanol
    172      20    1  -0.419820  2.188339e+01  2.233219e+01  2.816776e+01  # CT1 ethanol
    173      20    2   0.432069  2.235880e+01  2.339030e+01  2.719389e+01  # CT2 ethanol
    174      20    3   0.101247  2.269638e+01  2.164264e+01  2.841776e+01  # HC1 ethanol
    175      20    4   0.116248  2.108228e+01  2.173220e+01  2.772374e+01  # HC2 ethanol
    176      20    5   0.087862  2.151330e+01  2.278908e+01  2.908981e+01  # HC3 ethanol
    177      20    6  -0.690372  2.282047e+01  2.277744e+01  2.599880e+01  # OH ethanol
    178      20    7  -0.053283  2.317374e+01  2.398106e+01  2.762301e+01  # H11 ethanol
    179      20    8   0.022726  2.154017e+01  2.406823e+01  2.693549e+01  # H12 ethanol
    180      20    9   0.403323  2.355648e+01  2.218835e+01  2.623702e+01  # HO ethanol
    181      21    1  -0.419820  8.688509e+00  6.865573e+00  4.152655e+01  # CT1 ethanol
    182      21    2   0.432069  8.878836e+00  7.685670e+00  4.026749e+01  # CT2 ethanol
    183      21    3   0.101247  9.245003e+00  5.924673e+00  4.146371e+01  # HC1 ethanol
    184      21    4   0.116248  7.633779e+00  6.603337e+00  4.165958e+01  # HC2 ethanol
    185      21    5   0.087862  9.029168e+00  7.417883e+00  4.240678e+01  # HC3 ethanol
    186      21    6  -0.690372  8.416626e+00  6.957128e+00  3.913942e+01  # OH ethanol
    187      21    7  -0.053283  9.933672e+00  7.934400e+00  4.011669e+01  # H11 ethanol
    188      21    8   0.022726  8.309801e+00  8.617883e+00  4.032818e+01  # H12 ethanol
    189      21    9   0.403323  8.937767e+00  6.137952e+00  3.908604e+01  # HO ethanol
    190      22    1  -0.419820  5.346226e+00  1.745043e+01  4.422516e+01  # CT1 ethanol
    191      22    2   0.432069  4.776354e+00  1.604826e+01  4.416877e+01  # CT2 ethanol
    192      22    3   0.101247  6.000762e+00  1.763724e+01  4.336748e+01  # HC1 ethanol
    193      22    4   0.116248  5.955469e+00  1.758262e+01  4.512530e+01  # HC2 ethanol
    194      22    5   0.087862  4.546635e+00  1.819645e+01  4.422681e+01  # HC3 ethanol
    195      22    6  -0.690372  5.829513e+00  1.509557e+01  4.418299e+01  # OH ethanol
    196      22    7  -0.053283  4.182755e+00  1.590194e+01  4.326129e+01  # H11 ethanol
    197      22    8   0.022726  4.134832e+00  1.586067e+01  4.503466e+01  # H12 ethanol
    198      22    9   0.403323  6.385298e+00  1.526152e+01  4.340257e+01  # HO ethanol
    199      23    1  -0.419820  1.784295e+01  3.905832e+01  5.184941e+01  # CT1 ethanol
    200      23    2   0.432069  1.656552e+01  3.828274e+01  5.209576e+01  # CT2 ethanol
    201      23    3   0.101247  1.772744e+01  4.010271e+01  5.215734e+01  # HC1 ethanol
    202      23    4   0.116248  1.808893e+01  3.906634e+01  5.078247e+01  # HC2 ethanol
    203      23    5   0.087862  1.867843e+01  3.861891e+01  5.240148e+01  # HC3 ethanol
    204      23    6  -0.690372  1.549765e+01  3.885994e+01  5.135857e+01  # OH ethanol
    205      23    7  -0.053283  1.630195e+01  3.828752e+01  5.315773e+01  # H11 ethanol
    206      23    8   0.022726  1.668027e+01  3.724379e+01  5.177342e+01  # H12 ethanol
    207      23    9   0.403323  1.539452e+01  3.977790e+01  5.166220e+01  # HO ethanol
    208      24    1  -0.419820  3.145773e+00  4.777932e+01  3.564173e+01  # CT1 ethanol
    209      24    2   0.432069  1.949322e+00  4.710710e+01  3.628254e+01  # CT2 ethanol
    210      24    3   0.101247  3.739272e+00  4.831130e+01  3.639251e+01  # HC1 ethanol
    211      24    4   0.116248  2.821595e+00  4.852324e+01  3.490660e+01  # HC2 ethanol
    212      24    5   0.087862  3.784902e+00  4.704511e+01  3.514339e+01  # HC3 ethanol
    213      24    6  -0.690372  1.125388e+00  4.807875e+01  3.691023e+01  # OH ethanol
    214      24    7  -0.053283  2.265005e+00  4.637650e+01  3.703344e+01  # H11 ethanol
    215      24    8   0.022726  1.351224e+00  4.658911e+01  3.552724e+01  # H12 ethanol
    216      24    9   0.403323  1.661502e+00  4.852327e+01  3.758881e+01  # HO ethanol
    217      25    1  -0.419820  2.547872e+01  4.075279e+01  3.852003e+01  # CT1 ethanol
    218      25    2   0.432069  2.510053e+01  3.929273e+01  3.838139e+01  # CT2 ethanol
    219      25    3   0.101247  2.656716e+01  4.087157e+01  3.853109e+01  # HC1 ethanol
    220      25    4   0.116248  2.510449e+01  4.115947e+01  3.946527e+01  # HC2 ethanol
    221      25    5   0.087862  2.506874e+01  4.134176e+01  3.769485e+01  # HC3 ethanol
    222      25    6  -0.690372  2.562921e+01  3.854913e+01  3.946975e+01  # OH ethanol
    223      25    7  -0.053283  2.548876e+01  3.887353e+01  3.744821e+01  # H11 ethanol
    224      25    8   0.022726  2.401282e+01  3.917699e+01  3.838542e+01  # H12 ethanol
    225      25    9   0.403323  2.659644e+01  3.864673e+01  3.944894e+01  # HO ethanol
    226      26    1  -0.419820  1.407899e+01  1.528874e+01  2.674160e+01  # CT1 ethanol
    227      26    2   0.432069  1.267405e+01  1.582039e+01  2.693526e+01  # CT2 ethanol
    228      26    3   0.101247  1.409447e+01  1.450469e+01  2.597744e+01  # HC1 ethanol
    229      26    4   0.116248  1.445132e+01  1.483824e+01  2.766753e+01  # HC2 ethanol
    230      26    5   0.087862  1.476029e+01  1.608879e+01  2.643889e+01  # HC3 ethanol
    231      26    6  -0.690372  1.180955e+01  1.476978e+01  2.734249e+01  # OH ethanol
    232      26    7  -0.053283  1.228712e+01  1.625405e+01  2.600816e+01  # H11 ethanol
    233      26    8   0.022726  1.266044e+01  1.659296e+01  2.770951e+01  # H12 ethanol
    234      26    9   0.403323  1.181758e+01  1.409553e+01  2.664191e+01  # HO ethanol
    235      27    1  -0.419820  1.488594e+01  3.156695e+01  3.452386e+01  # CT1 ethanol
    236      27    2   0.432069  1.354785e+01  3.147129e+01  3.382073e+01  # CT2 ethanol
    237      27    3   0.101247  1.479743e+01  3.125336e+01  3.556921e+01  # HC1 ethanol
    238      27    4   0.116248  1.524407e+01  3.260165e+01  3.453112e+01  # HC2 ethanol
    239      27    5   0.087862  1.563183e+01  3.093818e+01  3.402971e+01  # HC3 ethanol
    240      27    6  -0.690372  1.259871e+01  3.230603e+01  3.446828e+01  # OH ethanol
    241      27    7  -0.053283  1.317350e+01  3.044313e+01  3.382735e+01  # H11 ethanol
    242      27    8   0.022726  1.363745e+01  3.179916e+01  3.278103e+01  # H12 ethanol
    243      27    9   0.403323  1.251582e+01  3.199779e+01  3.538676e+01  # HO ethanol
    244      28    1  -0.419820  5.062921e+00  4.953539e+00  5.209967e+01  # CT1 ethanol
    245      28    2   0.432069  5.839110e+00  5.338657e+00  5.334194e+01  # CT2 ethanol
    246      28    3   0.101247  4.098226e+00  4.510280e+00  5.236766e+01  # HC1 ethanol
    247      28    4   0.116248  5.609530e+00  4.200998e+00  5.152190e+01  # HC2 ethanol
    248      28    5   0.087862  4.885179e+00  5.826103e+00  5.146491e+01  # HC3 ethanol
    249      28    6  -0.690372  6.072252e+00  4.189991e+00  5.414393e+01  # OH ethanol
    250      28    7  -0.053283  5.289636e+00  6.075622e+00  5.393544e+01  # H11 ethanol
    251      28    8   0.022726  6.808014e+00  5.767549e+00  5.307032e+01  # H12 ethanol
    252      28    9   0.403323  5.205789e+00  3.824817e+00  5.439167e+01  # HO ethanol
    253      29    1  -0.419820  2.287395e+01  1.607406e+01  5.149443e+01  # CT1 ethanol
    254      29    2   0.432069  2.437902e+01  1.623556e+01  5.144252e+01  # CT2 ethanol
    255      29    3   0.101247  2.260333e+01  1.509638e+01  5.190653e+01  # HC1 ethanol
    256      29    4   0.116248  2.244626e+01  1.612464e+01  5.048773e+01  # HC2 ethanol
    257      29    5   0.087862  2.241919e+01  1.685416e+01  5.211129e+01  # HC3 ethanol
    258      29    6  -0.690372  2.494774e+01  1.522301e+01  5.062505e+01  # OH ethanol
    259      29    7  -0.053283  2.481611e+01  1.616565e+01  5.244320e+01  # H11 ethanol
    260      29    8   0.022726  2.464529e+01  1.720737e+01  5.101685e+01  # H12 ethanol
    261      29    9   0.403323  2.471766e+01  1.436448e+01  5.101934e+01  # HO ethanol
    262      30    1  -0.419820  2.191987e+01  2.817082e+01  3.458527e+01  # CT1 ethanol
    263      30    2   0.432069  2.288054e+01  2.926976e+01  3.498959e+01  # CT2 ethanol
    264      30    3   0.101247  2.160622e+01  2.758985e+01  3.545878e+01  # HC1 ethanol
    265      30    4   0.116248  2.240299e+01  2.747177e+01  3.389475e+01  # HC2 ethanol
    266      30    5   0.087862  2.103165e+01  2.858765e+01  3.410236e+01  # HC3 ethanol
    267      30    6  -0.690372  2.403255e+01  2.870674e+01  3.560021e+01  # OH ethanol
    268      30    7  -0.053283  2.241124e+01  2.996123e+01  3.569592e+01  # H11 ethanol
    269      30    8   0.022726  2.320272e+01  2.983842e+01  3.411248e+01  # H12 ethanol
    270      30    9   0.403323  2.373738e+01  2.821579e+01  3.638591e+01  # HO ethanol
    271      31    1  -0.419820  1.499253e+01  1.052848e+01  2.722084e+01  # CT1 ethanol
    272      31    2   0.432069  1.434025e+01  1.189243e+01  2.713044e+01  # CT2 ethanol
    273      31    3   0.101247  1.476795e+01  1.005472e+01  2.818212e+01  # HC1 ethanol
    274      31    4   0.116248  1.608196e+01  1.061757e+01  2.715665e+01  # HC2 ethanol
    275      31    5   0.087862  1.464328e+01  9.875224e+00  2.641636e+01  # HC3 ethanol
    276      31    6  -0.690372  1.481841e+01  1.272903e+01  2.817372e+01  # OH ethanol
    277      31    7  -0.053283  1.325213e+01  1.181358e+01  2.721442e+01  # H11 ethanol
    278      31    8   0.022726  1.457896e+01  1.236834e+01  2.617491e+01  # H12 ethanol
    279      31    9   0.403323  1.458898e+01  1.230471e+01  2.901800e+01  # HO ethanol
    280      32    1  -0.419820  1.124940e+01  3.804731e+01  3.217987e+01  # CT1 ethanol
    281      32    2   0.432069  9.895539e+00  3.801085e+01  3.150182e+01  # CT2 ethanol
    282      32    3   0.101247  1.189134e+01  3.724268e+01  3.180650e+01  # HC1 ethanol
    283      32    4   0.116248  1.114382e+01  3.789550e+01  3.325909e+01  # HC2 ethanol
    284      32    5   0.087862  1.174748e+01  3.900497e+01  3.200468e+01  # HC3 ethanol
    285      32    6  -0.690372  9.259850e+00  3.676620e+01  3.175424e+01  # OH ethanol
    286      32    7  -0.053283  9.994644e+00  3.814146e+01  3.041997e+01  # H11 ethanol
    287      32    8   0.022726  9.252440e+00  3.880696e+01  3.188798e+01  # H12 ethanol
    288      32    9   0.403323  9.831932e+00  3.606681e+01  3.139498e+01  # HO ethanol
    289      33    1  -0.419820  5.886531e+00  3.133145e+01  5.289899e+01  # CT1 ethanol
    290      33    2   0.432069  6.163448e+00  2.984319e+01  5.285014e+01  # CT2 ethanol
    291      33    3   0.101247  6.587577e+00  3.187705e+01  5.225885e+01  # HC1 ethanol
    292      33    4   0.116248  6.019642e+00  3.171476e+01  5.391598e+01  # HC2 ethanol
    293      33    5   0.087862  4.866680e+00  3.154925e+01  5.256981e+01  # HC3 ethanol
    294      33    6  -0.690372  7.486259e+00  2.958092e+01  5.329551e+01  # OH ethanol
    295      33    7  -0.053283  6.052377e+00  2.945639e+01  5.183262e+01  # H11 ethanol
    296      33    8   0.022726  5.470583e+00  2.930329e+01  5.350202e+01  # H12 ethanol
    297      33    9   0.403323  8.094405e+00  3.005317e+01  5.270168e+01  # HO ethanol
    298      34    1  -0.419820  1.761988e+01  4.430283e+01  2.794449e+01  # CT1 ethanol
    299      34    2   0.432069  1.811227e+01  4.515590e+01  2.679392e+01  # CT2 ethanol
    300      34    3   0.101247  1.838703e+01  4.422025e+01  2.872140e+01  # HC1 ethanol
    301      34    4   0.116248  1.740122e+01  4.328552e+01  2.760361e+01  # HC2 ethanol
    302      34    5   0.087862  1.671536e+01  4.472945e+01  2.838691e+01  # HC3 ethanol
    303      34    6  -0.690372  1.927731e+01  4.457681e+01  2.622444e+01  # OH ethanol
    304      34    7  -0.053283  1.835247e+01  4.616882e+01  2.713093e+01  # H11 ethanol
    305      34    8   0.022726  1.734870e+01  4.522388e+01  2.601363e+01  # H12 ethanol
    306      34    9   0.403323  1.995391e+01  4.453394e+01  2.692149e+01  # HO ethanol
    307      35    1  -0.419820  5.171083e+00  7.608369e+00  4.632805e+01  # CT1 ethanol
    308      35    2   0.432069  6.491495e+00  7.440870e+00  4.560523e+01  # CT2 ethanol
    309      35    3   0.101247  5.208849e+00  7.140066e+00  4.731708e+01  # HC1 ethanol
    310      35    4   0.116248  4.363907e+00  7.117849e+00  4.577418e+01  # HC2 ethanol
    311      35    5   0.087862  4.924366e+00  8.666858e+00  4.644897e+01  # HC3 ethanol
    312      35    6  -0.690372  6.785338e+00  6.060651e+00  4.544517e+01  # OH ethanol
    313      35    7  -0.053283  7.306904e+00  7.911050e+00  4.616319e+01  # H11 ethanol
    314      35    8   0.022726  6.444882e+00  7.897205e+00  4.461221e+01  # H12 ethanol
    315      35    9   0.403323  6.838682e+00  5.667560e+00  4.633293e+01  # HO ethanol
    316      36    1  -0.419820  1.710876e+01  1.350431e+00  3.581557e+01  # CT1 ethanol
    317      36    2   0.432069  1.789921e+01  2.633461e+00  3.566378e+01  # CT2 ethanol
    318      36    3   0.101247  1.704136e+01  8.216200e-01  3.485915e+01  # HC1 ethanol
    319      36    4   0.116248  1.608325e+01  1.565227e+00  3.613354e+01  # HC2 ethanol
    320      36    5   0.087862  1.757579e+01  6.894980e-01  3.655106e+01  # HC3 ethanol